V -t * -v 1.0a5 -a 0
A -t * -n 1 -p 0 -o 0x7fffffff -c 30 -a 1
A -t * -h 1 -m 1073741823 -s 0
c -t * -i 1 -n Blue
c -t * -i 2 -n Red
n -t * -a 4 -s 4 -S UP -v circle -c black -i black
n -t * -a 0 -s 0 -S UP -v circle -c black -i black
n -t * -a 5 -s 5 -S UP -v circle -c black -i black
n -t * -a 1 -s 1 -S UP -v circle -c black -i black
n -t * -a 6 -s 6 -S UP -v circle -c black -i black
n -t * -a 2 -s 2 -S UP -v circle -c black -i black
n -t * -a 7 -s 7 -S UP -v circle -c black -i black
n -t * -a 3 -s 3 -S UP -v circle -c black -i black
l -t * -s 0 -d 2 -S UP -r 2000000 -D 0.01 -c black
l -t * -s 1 -d 2 -S UP -r 2200000 -D 0.02 -c black
l -t * -s 2 -d 3 -S UP -r 2000000 -D 0.01 -c black
l -t * -s 3 -d 4 -S UP -r 2000000 -D 0.01 -c black
l -t * -s 4 -d 5 -S UP -r 1700000 -D 0.02 -c black
l -t * -s 5 -d 6 -S UP -r 2000000 -D 0.01 -c black
l -t * -s 4 -d 7 -S UP -r 2000000 -D 0.01 -c black
l -t * -s 6 -d 7 -S UP -r 2000000 -D 0.01 -c black
l -t * -s 7 -d 0 -S UP -r 1700000 -D 0.02 -c black
q -t * -s 1 -d 2 -a 0.5
q -t * -s 2 -d 1 -a 0.5
+ -t 0.000169788487334637 -s 0 -d 2 -p rtProtoDV -e 8 -c 0 -i 0 -a 0 -x {0.2 2.1 -1 ------- null}
- -t 0.000169788487334637 -s 0 -d 2 -p rtProtoDV -e 8 -c 0 -i 0 -a 0 -x {0.2 2.1 -1 ------- null}
h -t 0.000169788487334637 -s 0 -d 2 -p rtProtoDV -e 8 -c 0 -i 0 -a 0 -x {0.2 2.1 -1 ------- null}
+ -t 0.000169788487334637 -s 0 -d 7 -p rtProtoDV -e 8 -c 0 -i 1 -a 0 -x {0.2 7.1 -1 ------- null}
- -t 0.000169788487334637 -s 0 -d 7 -p rtProtoDV -e 8 -c 0 -i 1 -a 0 -x {0.2 7.1 -1 ------- null}
h -t 0.000169788487334637 -s 0 -d 7 -p rtProtoDV -e 8 -c 0 -i 1 -a 0 -x {0.2 7.1 -1 ------- null}
+ -t 0.00710233021858257 -s 2 -d 0 -p rtProtoDV -e 8 -c 0 -i 2 -a 0 -x {2.1 0.2 -1 ------- null}
- -t 0.00710233021858257 -s 2 -d 0 -p rtProtoDV -e 8 -c 0 -i 2 -a 0 -x {2.1 0.2 -1 ------- null}
h -t 0.00710233021858257 -s 2 -d 0 -p rtProtoDV -e 8 -c 0 -i 2 -a 0 -x {2.1 0.2 -1 ------- null}
+ -t 0.00710233021858257 -s 2 -d 1 -p rtProtoDV -e 8 -c 0 -i 3 -a 0 -x {2.1 1.2 -1 ------- null}
- -t 0.00710233021858257 -s 2 -d 1 -p rtProtoDV -e 8 -c 0 -i 3 -a 0 -x {2.1 1.2 -1 ------- null}
h -t 0.00710233021858257 -s 2 -d 1 -p rtProtoDV -e 8 -c 0 -i 3 -a 0 -x {2.1 1.2 -1 ------- null}
+ -t 0.00710233021858257 -s 2 -d 3 -p rtProtoDV -e 8 -c 0 -i 4 -a 0 -x {2.1 3.1 -1 ------- null}
- -t 0.00710233021858257 -s 2 -d 3 -p rtProtoDV -e 8 -c 0 -i 4 -a 0 -x {2.1 3.1 -1 ------- null}
h -t 0.00710233021858257 -s 2 -d 3 -p rtProtoDV -e 8 -c 0 -i 4 -a 0 -x {2.1 3.1 -1 ------- null}
r -t 0.0102017884873346 -s 0 -d 2 -p rtProtoDV -e 8 -c 0 -i 0 -a 0 -x {0.2 2.1 -1 ------- null}
+ -t 0.0102017884873346 -s 2 -d 0 -p rtProtoDV -e 8 -c 0 -i 5 -a 0 -x {2.1 0.2 -1 ------- null}
- -t 0.0102017884873346 -s 2 -d 0 -p rtProtoDV -e 8 -c 0 -i 5 -a 0 -x {2.1 0.2 -1 ------- null}
h -t 0.0102017884873346 -s 2 -d 0 -p rtProtoDV -e 8 -c 0 -i 5 -a 0 -x {2.1 0.2 -1 ------- null}
+ -t 0.0102017884873346 -s 2 -d 1 -p rtProtoDV -e 8 -c 0 -i 6 -a 0 -x {2.1 1.2 -1 ------- null}
- -t 0.0102017884873346 -s 2 -d 1 -p rtProtoDV -e 8 -c 0 -i 6 -a 0 -x {2.1 1.2 -1 ------- null}
h -t 0.0102017884873346 -s 2 -d 1 -p rtProtoDV -e 8 -c 0 -i 6 -a 0 -x {2.1 1.2 -1 ------- null}
+ -t 0.0102017884873346 -s 2 -d 3 -p rtProtoDV -e 8 -c 0 -i 7 -a 0 -x {2.1 3.1 -1 ------- null}
- -t 0.0102017884873346 -s 2 -d 3 -p rtProtoDV -e 8 -c 0 -i 7 -a 0 -x {2.1 3.1 -1 ------- null}
h -t 0.0102017884873346 -s 2 -d 3 -p rtProtoDV -e 8 -c 0 -i 7 -a 0 -x {2.1 3.1 -1 ------- null}
r -t 0.0171343302185826 -s 2 -d 0 -p rtProtoDV -e 8 -c 0 -i 2 -a 0 -x {2.1 0.2 -1 ------- null}
+ -t 0.0171343302185826 -s 0 -d 2 -p rtProtoDV -e 8 -c 0 -i 8 -a 0 -x {0.2 2.1 -1 ------- null}
- -t 0.0171343302185826 -s 0 -d 2 -p rtProtoDV -e 8 -c 0 -i 8 -a 0 -x {0.2 2.1 -1 ------- null}
h -t 0.0171343302185826 -s 0 -d 2 -p rtProtoDV -e 8 -c 0 -i 8 -a 0 -x {0.2 2.1 -1 ------- null}
+ -t 0.0171343302185826 -s 0 -d 7 -p rtProtoDV -e 8 -c 0 -i 9 -a 0 -x {0.2 7.1 -1 ------- null}
- -t 0.0171343302185826 -s 0 -d 7 -p rtProtoDV -e 8 -c 0 -i 9 -a 0 -x {0.2 7.1 -1 ------- null}
h -t 0.0171343302185826 -s 0 -d 7 -p rtProtoDV -e 8 -c 0 -i 9 -a 0 -x {0.2 7.1 -1 ------- null}
r -t 0.0171343302185826 -s 2 -d 3 -p rtProtoDV -e 8 -c 0 -i 4 -a 0 -x {2.1 3.1 -1 ------- null}
+ -t 0.0171343302185826 -s 3 -d 2 -p rtProtoDV -e 8 -c 0 -i 10 -a 0 -x {3.1 2.1 -1 ------- null}
- -t 0.0171343302185826 -s 3 -d 2 -p rtProtoDV -e 8 -c 0 -i 10 -a 0 -x {3.1 2.1 -1 ------- null}
h -t 0.0171343302185826 -s 3 -d 2 -p rtProtoDV -e 8 -c 0 -i 10 -a 0 -x {3.1 2.1 -1 ------- null}
+ -t 0.0171343302185826 -s 3 -d 4 -p rtProtoDV -e 8 -c 0 -i 11 -a 0 -x {3.1 4.1 -1 ------- null}
- -t 0.0171343302185826 -s 3 -d 4 -p rtProtoDV -e 8 -c 0 -i 11 -a 0 -x {3.1 4.1 -1 ------- null}
h -t 0.0171343302185826 -s 3 -d 4 -p rtProtoDV -e 8 -c 0 -i 11 -a 0 -x {3.1 4.1 -1 ------- null}
r -t 0.0202074355461582 -s 0 -d 7 -p rtProtoDV -e 8 -c 0 -i 1 -a 0 -x {0.2 7.1 -1 ------- null}
+ -t 0.0202074355461582 -s 7 -d 0 -p rtProtoDV -e 8 -c 0 -i 12 -a 0 -x {7.1 0.2 -1 ------- null}
- -t 0.0202074355461582 -s 7 -d 0 -p rtProtoDV -e 8 -c 0 -i 12 -a 0 -x {7.1 0.2 -1 ------- null}
h -t 0.0202074355461582 -s 7 -d 0 -p rtProtoDV -e 8 -c 0 -i 12 -a 0 -x {7.1 0.2 -1 ------- null}
+ -t 0.0202074355461582 -s 7 -d 4 -p rtProtoDV -e 8 -c 0 -i 13 -a 0 -x {7.1 4.1 -1 ------- null}
- -t 0.0202074355461582 -s 7 -d 4 -p rtProtoDV -e 8 -c 0 -i 13 -a 0 -x {7.1 4.1 -1 ------- null}
h -t 0.0202074355461582 -s 7 -d 4 -p rtProtoDV -e 8 -c 0 -i 13 -a 0 -x {7.1 4.1 -1 ------- null}
+ -t 0.0202074355461582 -s 7 -d 6 -p rtProtoDV -e 8 -c 0 -i 14 -a 0 -x {7.1 6.1 -1 ------- null}
- -t 0.0202074355461582 -s 7 -d 6 -p rtProtoDV -e 8 -c 0 -i 14 -a 0 -x {7.1 6.1 -1 ------- null}
h -t 0.0202074355461582 -s 7 -d 6 -p rtProtoDV -e 8 -c 0 -i 14 -a 0 -x {7.1 6.1 -1 ------- null}
r -t 0.0202337884873346 -s 2 -d 0 -p rtProtoDV -e 8 -c 0 -i 5 -a 0 -x {2.1 0.2 -1 ------- null}
r -t 0.0202337884873346 -s 2 -d 3 -p rtProtoDV -e 8 -c 0 -i 7 -a 0 -x {2.1 3.1 -1 ------- null}
+ -t 0.0202337884873346 -s 3 -d 2 -p rtProtoDV -e 8 -c 0 -i 15 -a 0 -x {3.1 2.1 -1 ------- null}
- -t 0.0202337884873346 -s 3 -d 2 -p rtProtoDV -e 8 -c 0 -i 15 -a 0 -x {3.1 2.1 -1 ------- null}
h -t 0.0202337884873346 -s 3 -d 2 -p rtProtoDV -e 8 -c 0 -i 15 -a 0 -x {3.1 2.1 -1 ------- null}
+ -t 0.0202337884873346 -s 3 -d 4 -p rtProtoDV -e 8 -c 0 -i 16 -a 0 -x {3.1 4.1 -1 ------- null}
- -t 0.0202337884873346 -s 3 -d 4 -p rtProtoDV -e 8 -c 0 -i 16 -a 0 -x {3.1 4.1 -1 ------- null}
h -t 0.0202337884873346 -s 3 -d 4 -p rtProtoDV -e 8 -c 0 -i 16 -a 0 -x {3.1 4.1 -1 ------- null}
r -t 0.0271314211276735 -s 2 -d 1 -p rtProtoDV -e 8 -c 0 -i 3 -a 0 -x {2.1 1.2 -1 ------- null}
+ -t 0.0271314211276735 -s 1 -d 2 -p rtProtoDV -e 8 -c 0 -i 17 -a 0 -x {1.2 2.1 -1 ------- null}
- -t 0.0271314211276735 -s 1 -d 2 -p rtProtoDV -e 8 -c 0 -i 17 -a 0 -x {1.2 2.1 -1 ------- null}
h -t 0.0271314211276735 -s 1 -d 2 -p rtProtoDV -e 8 -c 0 -i 17 -a 0 -x {1.2 2.1 -1 ------- null}
r -t 0.0271663302185826 -s 0 -d 2 -p rtProtoDV -e 8 -c 0 -i 8 -a 0 -x {0.2 2.1 -1 ------- null}
r -t 0.0271663302185826 -s 3 -d 2 -p rtProtoDV -e 8 -c 0 -i 10 -a 0 -x {3.1 2.1 -1 ------- null}
+ -t 0.0271663302185826 -s 2 -d 0 -p rtProtoDV -e 8 -c 0 -i 18 -a 0 -x {2.1 0.2 -1 ------- null}
- -t 0.0271663302185826 -s 2 -d 0 -p rtProtoDV -e 8 -c 0 -i 18 -a 0 -x {2.1 0.2 -1 ------- null}
h -t 0.0271663302185826 -s 2 -d 0 -p rtProtoDV -e 8 -c 0 -i 18 -a 0 -x {2.1 0.2 -1 ------- null}
+ -t 0.0271663302185826 -s 2 -d 1 -p rtProtoDV -e 8 -c 0 -i 19 -a 0 -x {2.1 1.2 -1 ------- null}
- -t 0.0271663302185826 -s 2 -d 1 -p rtProtoDV -e 8 -c 0 -i 19 -a 0 -x {2.1 1.2 -1 ------- null}
h -t 0.0271663302185826 -s 2 -d 1 -p rtProtoDV -e 8 -c 0 -i 19 -a 0 -x {2.1 1.2 -1 ------- null}
+ -t 0.0271663302185826 -s 2 -d 3 -p rtProtoDV -e 8 -c 0 -i 20 -a 0 -x {2.1 3.1 -1 ------- null}
- -t 0.0271663302185826 -s 2 -d 3 -p rtProtoDV -e 8 -c 0 -i 20 -a 0 -x {2.1 3.1 -1 ------- null}
h -t 0.0271663302185826 -s 2 -d 3 -p rtProtoDV -e 8 -c 0 -i 20 -a 0 -x {2.1 3.1 -1 ------- null}
r -t 0.0271663302185826 -s 3 -d 4 -p rtProtoDV -e 8 -c 0 -i 11 -a 0 -x {3.1 4.1 -1 ------- null}
+ -t 0.0271663302185826 -s 4 -d 3 -p rtProtoDV -e 8 -c 0 -i 21 -a 0 -x {4.1 3.1 -1 ------- null}
- -t 0.0271663302185826 -s 4 -d 3 -p rtProtoDV -e 8 -c 0 -i 21 -a 0 -x {4.1 3.1 -1 ------- null}
h -t 0.0271663302185826 -s 4 -d 3 -p rtProtoDV -e 8 -c 0 -i 21 -a 0 -x {4.1 3.1 -1 ------- null}
+ -t 0.0271663302185826 -s 4 -d 5 -p rtProtoDV -e 8 -c 0 -i 22 -a 0 -x {4.1 5.1 -1 ------- null}
- -t 0.0271663302185826 -s 4 -d 5 -p rtProtoDV -e 8 -c 0 -i 22 -a 0 -x {4.1 5.1 -1 ------- null}
h -t 0.0271663302185826 -s 4 -d 5 -p rtProtoDV -e 8 -c 0 -i 22 -a 0 -x {4.1 5.1 -1 ------- null}
+ -t 0.0271663302185826 -s 4 -d 7 -p rtProtoDV -e 8 -c 0 -i 23 -a 0 -x {4.1 7.1 -1 ------- null}
- -t 0.0271663302185826 -s 4 -d 7 -p rtProtoDV -e 8 -c 0 -i 23 -a 0 -x {4.1 7.1 -1 ------- null}
h -t 0.0271663302185826 -s 4 -d 7 -p rtProtoDV -e 8 -c 0 -i 23 -a 0 -x {4.1 7.1 -1 ------- null}
r -t 0.0302308793964255 -s 2 -d 1 -p rtProtoDV -e 8 -c 0 -i 6 -a 0 -x {2.1 1.2 -1 ------- null}
+ -t 0.0302308793964255 -s 1 -d 2 -p rtProtoDV -e 8 -c 0 -i 24 -a 0 -x {1.2 2.1 -1 ------- null}
- -t 0.0302308793964255 -s 1 -d 2 -p rtProtoDV -e 8 -c 0 -i 24 -a 0 -x {1.2 2.1 -1 ------- null}
h -t 0.0302308793964255 -s 1 -d 2 -p rtProtoDV -e 8 -c 0 -i 24 -a 0 -x {1.2 2.1 -1 ------- null}
r -t 0.0302394355461582 -s 7 -d 4 -p rtProtoDV -e 8 -c 0 -i 13 -a 0 -x {7.1 4.1 -1 ------- null}
+ -t 0.0302394355461582 -s 4 -d 3 -p rtProtoDV -e 8 -c 0 -i 25 -a 0 -x {4.1 3.1 -1 ------- null}
- -t 0.0302394355461582 -s 4 -d 3 -p rtProtoDV -e 8 -c 0 -i 25 -a 0 -x {4.1 3.1 -1 ------- null}
h -t 0.0302394355461582 -s 4 -d 3 -p rtProtoDV -e 8 -c 0 -i 25 -a 0 -x {4.1 3.1 -1 ------- null}
+ -t 0.0302394355461582 -s 4 -d 5 -p rtProtoDV -e 8 -c 0 -i 26 -a 0 -x {4.1 5.1 -1 ------- null}
- -t 0.0302394355461582 -s 4 -d 5 -p rtProtoDV -e 8 -c 0 -i 26 -a 0 -x {4.1 5.1 -1 ------- null}
h -t 0.0302394355461582 -s 4 -d 5 -p rtProtoDV -e 8 -c 0 -i 26 -a 0 -x {4.1 5.1 -1 ------- null}
+ -t 0.0302394355461582 -s 4 -d 7 -p rtProtoDV -e 8 -c 0 -i 27 -a 0 -x {4.1 7.1 -1 ------- null}
- -t 0.0302394355461582 -s 4 -d 7 -p rtProtoDV -e 8 -c 0 -i 27 -a 0 -x {4.1 7.1 -1 ------- null}
h -t 0.0302394355461582 -s 4 -d 7 -p rtProtoDV -e 8 -c 0 -i 27 -a 0 -x {4.1 7.1 -1 ------- null}
r -t 0.0302394355461582 -s 7 -d 6 -p rtProtoDV -e 8 -c 0 -i 14 -a 0 -x {7.1 6.1 -1 ------- null}
+ -t 0.0302394355461582 -s 6 -d 5 -p rtProtoDV -e 8 -c 0 -i 28 -a 0 -x {6.1 5.1 -1 ------- null}
- -t 0.0302394355461582 -s 6 -d 5 -p rtProtoDV -e 8 -c 0 -i 28 -a 0 -x {6.1 5.1 -1 ------- null}
h -t 0.0302394355461582 -s 6 -d 5 -p rtProtoDV -e 8 -c 0 -i 28 -a 0 -x {6.1 5.1 -1 ------- null}
+ -t 0.0302394355461582 -s 6 -d 7 -p rtProtoDV -e 8 -c 0 -i 29 -a 0 -x {6.1 7.1 -1 ------- null}
- -t 0.0302394355461582 -s 6 -d 7 -p rtProtoDV -e 8 -c 0 -i 29 -a 0 -x {6.1 7.1 -1 ------- null}
h -t 0.0302394355461582 -s 6 -d 7 -p rtProtoDV -e 8 -c 0 -i 29 -a 0 -x {6.1 7.1 -1 ------- null}
r -t 0.0302657884873346 -s 3 -d 2 -p rtProtoDV -e 8 -c 0 -i 15 -a 0 -x {3.1 2.1 -1 ------- null}
r -t 0.0302657884873346 -s 3 -d 4 -p rtProtoDV -e 8 -c 0 -i 16 -a 0 -x {3.1 4.1 -1 ------- null}
r -t 0.0371719772774061 -s 0 -d 7 -p rtProtoDV -e 8 -c 0 -i 9 -a 0 -x {0.2 7.1 -1 ------- null}
+ -t 0.0371719772774061 -s 7 -d 0 -p rtProtoDV -e 8 -c 0 -i 30 -a 0 -x {7.1 0.2 -1 ------- null}
- -t 0.0371719772774061 -s 7 -d 0 -p rtProtoDV -e 8 -c 0 -i 30 -a 0 -x {7.1 0.2 -1 ------- null}
h -t 0.0371719772774061 -s 7 -d 0 -p rtProtoDV -e 8 -c 0 -i 30 -a 0 -x {7.1 0.2 -1 ------- null}
+ -t 0.0371719772774061 -s 7 -d 4 -p rtProtoDV -e 8 -c 0 -i 31 -a 0 -x {7.1 4.1 -1 ------- null}
- -t 0.0371719772774061 -s 7 -d 4 -p rtProtoDV -e 8 -c 0 -i 31 -a 0 -x {7.1 4.1 -1 ------- null}
h -t 0.0371719772774061 -s 7 -d 4 -p rtProtoDV -e 8 -c 0 -i 31 -a 0 -x {7.1 4.1 -1 ------- null}
+ -t 0.0371719772774061 -s 7 -d 6 -p rtProtoDV -e 8 -c 0 -i 32 -a 0 -x {7.1 6.1 -1 ------- null}
- -t 0.0371719772774061 -s 7 -d 6 -p rtProtoDV -e 8 -c 0 -i 32 -a 0 -x {7.1 6.1 -1 ------- null}
h -t 0.0371719772774061 -s 7 -d 6 -p rtProtoDV -e 8 -c 0 -i 32 -a 0 -x {7.1 6.1 -1 ------- null}
r -t 0.0371983302185826 -s 2 -d 0 -p rtProtoDV -e 8 -c 0 -i 18 -a 0 -x {2.1 0.2 -1 ------- null}
+ -t 0.0371983302185826 -s 0 -d 2 -p rtProtoDV -e 8 -c 0 -i 33 -a 0 -x {0.2 2.1 -1 ------- null}
- -t 0.0371983302185826 -s 0 -d 2 -p rtProtoDV -e 8 -c 0 -i 33 -a 0 -x {0.2 2.1 -1 ------- null}
h -t 0.0371983302185826 -s 0 -d 2 -p rtProtoDV -e 8 -c 0 -i 33 -a 0 -x {0.2 2.1 -1 ------- null}
+ -t 0.0371983302185826 -s 0 -d 7 -p rtProtoDV -e 8 -c 0 -i 34 -a 0 -x {0.2 7.1 -1 ------- null}
- -t 0.0371983302185826 -s 0 -d 7 -p rtProtoDV -e 8 -c 0 -i 34 -a 0 -x {0.2 7.1 -1 ------- null}
h -t 0.0371983302185826 -s 0 -d 7 -p rtProtoDV -e 8 -c 0 -i 34 -a 0 -x {0.2 7.1 -1 ------- null}
r -t 0.0371983302185826 -s 2 -d 3 -p rtProtoDV -e 8 -c 0 -i 20 -a 0 -x {2.1 3.1 -1 ------- null}
r -t 0.0371983302185826 -s 4 -d 3 -p rtProtoDV -e 8 -c 0 -i 21 -a 0 -x {4.1 3.1 -1 ------- null}
+ -t 0.0371983302185826 -s 3 -d 2 -p rtProtoDV -e 8 -c 0 -i 35 -a 0 -x {3.1 2.1 -1 ------- null}
- -t 0.0371983302185826 -s 3 -d 2 -p rtProtoDV -e 8 -c 0 -i 35 -a 0 -x {3.1 2.1 -1 ------- null}
h -t 0.0371983302185826 -s 3 -d 2 -p rtProtoDV -e 8 -c 0 -i 35 -a 0 -x {3.1 2.1 -1 ------- null}
+ -t 0.0371983302185826 -s 3 -d 4 -p rtProtoDV -e 8 -c 0 -i 36 -a 0 -x {3.1 4.1 -1 ------- null}
- -t 0.0371983302185826 -s 3 -d 4 -p rtProtoDV -e 8 -c 0 -i 36 -a 0 -x {3.1 4.1 -1 ------- null}
h -t 0.0371983302185826 -s 3 -d 4 -p rtProtoDV -e 8 -c 0 -i 36 -a 0 -x {3.1 4.1 -1 ------- null}
r -t 0.0371983302185826 -s 4 -d 7 -p rtProtoDV -e 8 -c 0 -i 23 -a 0 -x {4.1 7.1 -1 ------- null}
+ -t 0.0371983302185826 -s 7 -d 0 -p rtProtoDV -e 8 -c 0 -i 37 -a 0 -x {7.1 0.2 -1 ------- null}
+ -t 0.0371983302185826 -s 7 -d 4 -p rtProtoDV -e 8 -c 0 -i 38 -a 0 -x {7.1 4.1 -1 ------- null}
+ -t 0.0371983302185826 -s 7 -d 6 -p rtProtoDV -e 8 -c 0 -i 39 -a 0 -x {7.1 6.1 -1 ------- null}
- -t 0.0372039772774061 -s 7 -d 4 -p rtProtoDV -e 8 -c 0 -i 38 -a 0 -x {7.1 4.1 -1 ------- null}
h -t 0.0372039772774061 -s 7 -d 4 -p rtProtoDV -e 8 -c 0 -i 38 -a 0 -x {7.1 4.1 -1 ------- null}
- -t 0.0372039772774061 -s 7 -d 6 -p rtProtoDV -e 8 -c 0 -i 39 -a 0 -x {7.1 6.1 -1 ------- null}
h -t 0.0372039772774061 -s 7 -d 6 -p rtProtoDV -e 8 -c 0 -i 39 -a 0 -x {7.1 6.1 -1 ------- null}
- -t 0.0372096243362296 -s 7 -d 0 -p rtProtoDV -e 8 -c 0 -i 37 -a 0 -x {7.1 0.2 -1 ------- null}
h -t 0.0372096243362296 -s 7 -d 0 -p rtProtoDV -e 8 -c 0 -i 37 -a 0 -x {7.1 0.2 -1 ------- null}
r -t 0.0402450826049817 -s 7 -d 0 -p rtProtoDV -e 8 -c 0 -i 12 -a 0 -x {7.1 0.2 -1 ------- null}
+ -t 0.0402450826049817 -s 0 -d 2 -p rtProtoDV -e 8 -c 0 -i 40 -a 0 -x {0.2 2.1 -1 ------- null}
- -t 0.0402450826049817 -s 0 -d 2 -p rtProtoDV -e 8 -c 0 -i 40 -a 0 -x {0.2 2.1 -1 ------- null}
h -t 0.0402450826049817 -s 0 -d 2 -p rtProtoDV -e 8 -c 0 -i 40 -a 0 -x {0.2 2.1 -1 ------- null}
+ -t 0.0402450826049817 -s 0 -d 7 -p rtProtoDV -e 8 -c 0 -i 41 -a 0 -x {0.2 7.1 -1 ------- null}
- -t 0.0402450826049817 -s 0 -d 7 -p rtProtoDV -e 8 -c 0 -i 41 -a 0 -x {0.2 7.1 -1 ------- null}
h -t 0.0402450826049817 -s 0 -d 7 -p rtProtoDV -e 8 -c 0 -i 41 -a 0 -x {0.2 7.1 -1 ------- null}
r -t 0.0402714355461582 -s 4 -d 3 -p rtProtoDV -e 8 -c 0 -i 25 -a 0 -x {4.1 3.1 -1 ------- null}
+ -t 0.0402714355461582 -s 3 -d 2 -p rtProtoDV -e 8 -c 0 -i 42 -a 0 -x {3.1 2.1 -1 ------- null}
- -t 0.0402714355461582 -s 3 -d 2 -p rtProtoDV -e 8 -c 0 -i 42 -a 0 -x {3.1 2.1 -1 ------- null}
h -t 0.0402714355461582 -s 3 -d 2 -p rtProtoDV -e 8 -c 0 -i 42 -a 0 -x {3.1 2.1 -1 ------- null}
+ -t 0.0402714355461582 -s 3 -d 4 -p rtProtoDV -e 8 -c 0 -i 43 -a 0 -x {3.1 4.1 -1 ------- null}
- -t 0.0402714355461582 -s 3 -d 4 -p rtProtoDV -e 8 -c 0 -i 43 -a 0 -x {3.1 4.1 -1 ------- null}
h -t 0.0402714355461582 -s 3 -d 4 -p rtProtoDV -e 8 -c 0 -i 43 -a 0 -x {3.1 4.1 -1 ------- null}
r -t 0.0402714355461582 -s 4 -d 7 -p rtProtoDV -e 8 -c 0 -i 27 -a 0 -x {4.1 7.1 -1 ------- null}
r -t 0.0402714355461582 -s 6 -d 5 -p rtProtoDV -e 8 -c 0 -i 28 -a 0 -x {6.1 5.1 -1 ------- null}
+ -t 0.0402714355461582 -s 5 -d 4 -p rtProtoDV -e 8 -c 0 -i 44 -a 0 -x {5.1 4.1 -1 ------- null}
- -t 0.0402714355461582 -s 5 -d 4 -p rtProtoDV -e 8 -c 0 -i 44 -a 0 -x {5.1 4.1 -1 ------- null}
h -t 0.0402714355461582 -s 5 -d 4 -p rtProtoDV -e 8 -c 0 -i 44 -a 0 -x {5.1 4.1 -1 ------- null}
+ -t 0.0402714355461582 -s 5 -d 6 -p rtProtoDV -e 8 -c 0 -i 45 -a 0 -x {5.1 6.1 -1 ------- null}
- -t 0.0402714355461582 -s 5 -d 6 -p rtProtoDV -e 8 -c 0 -i 45 -a 0 -x {5.1 6.1 -1 ------- null}
h -t 0.0402714355461582 -s 5 -d 6 -p rtProtoDV -e 8 -c 0 -i 45 -a 0 -x {5.1 6.1 -1 ------- null}
r -t 0.0402714355461582 -s 6 -d 7 -p rtProtoDV -e 8 -c 0 -i 29 -a 0 -x {6.1 7.1 -1 ------- null}
+ -t 0.04406133552271 -s 3 -d 2 -p rtProtoDV -e 8 -c 0 -i 46 -a 0 -x {3.1 2.1 -1 ------- null}
- -t 0.04406133552271 -s 3 -d 2 -p rtProtoDV -e 8 -c 0 -i 46 -a 0 -x {3.1 2.1 -1 ------- null}
h -t 0.04406133552271 -s 3 -d 2 -p rtProtoDV -e 8 -c 0 -i 46 -a 0 -x {3.1 2.1 -1 ------- null}
+ -t 0.04406133552271 -s 3 -d 4 -p rtProtoDV -e 8 -c 0 -i 47 -a 0 -x {3.1 4.1 -1 ------- null}
- -t 0.04406133552271 -s 3 -d 4 -p rtProtoDV -e 8 -c 0 -i 47 -a 0 -x {3.1 4.1 -1 ------- null}
h -t 0.04406133552271 -s 3 -d 4 -p rtProtoDV -e 8 -c 0 -i 47 -a 0 -x {3.1 4.1 -1 ------- null}
r -t 0.0471605120367644 -s 1 -d 2 -p rtProtoDV -e 8 -c 0 -i 17 -a 0 -x {1.2 2.1 -1 ------- null}
r -t 0.0471954211276735 -s 2 -d 1 -p rtProtoDV -e 8 -c 0 -i 19 -a 0 -x {2.1 1.2 -1 ------- null}
+ -t 0.0471954211276735 -s 1 -d 2 -p rtProtoDV -e 8 -c 0 -i 48 -a 0 -x {1.2 2.1 -1 ------- null}
- -t 0.0471954211276735 -s 1 -d 2 -p rtProtoDV -e 8 -c 0 -i 48 -a 0 -x {1.2 2.1 -1 ------- null}
h -t 0.0471954211276735 -s 1 -d 2 -p rtProtoDV -e 8 -c 0 -i 48 -a 0 -x {1.2 2.1 -1 ------- null}
r -t 0.0472039772774061 -s 7 -d 4 -p rtProtoDV -e 8 -c 0 -i 31 -a 0 -x {7.1 4.1 -1 ------- null}
r -t 0.0472039772774061 -s 7 -d 6 -p rtProtoDV -e 8 -c 0 -i 32 -a 0 -x {7.1 6.1 -1 ------- null}
+ -t 0.0472039772774061 -s 6 -d 5 -p rtProtoDV -e 8 -c 0 -i 49 -a 0 -x {6.1 5.1 -1 ------- null}
- -t 0.0472039772774061 -s 6 -d 5 -p rtProtoDV -e 8 -c 0 -i 49 -a 0 -x {6.1 5.1 -1 ------- null}
h -t 0.0472039772774061 -s 6 -d 5 -p rtProtoDV -e 8 -c 0 -i 49 -a 0 -x {6.1 5.1 -1 ------- null}
+ -t 0.0472039772774061 -s 6 -d 7 -p rtProtoDV -e 8 -c 0 -i 50 -a 0 -x {6.1 7.1 -1 ------- null}
- -t 0.0472039772774061 -s 6 -d 7 -p rtProtoDV -e 8 -c 0 -i 50 -a 0 -x {6.1 7.1 -1 ------- null}
h -t 0.0472039772774061 -s 6 -d 7 -p rtProtoDV -e 8 -c 0 -i 50 -a 0 -x {6.1 7.1 -1 ------- null}
r -t 0.0472039772774061 -s 4 -d 5 -p rtProtoDV -e 8 -c 0 -i 22 -a 0 -x {4.1 5.1 -1 ------- null}
+ -t 0.0472039772774061 -s 5 -d 4 -p rtProtoDV -e 8 -c 0 -i 51 -a 0 -x {5.1 4.1 -1 ------- null}
- -t 0.0472039772774061 -s 5 -d 4 -p rtProtoDV -e 8 -c 0 -i 51 -a 0 -x {5.1 4.1 -1 ------- null}
h -t 0.0472039772774061 -s 5 -d 4 -p rtProtoDV -e 8 -c 0 -i 51 -a 0 -x {5.1 4.1 -1 ------- null}
+ -t 0.0472039772774061 -s 5 -d 6 -p rtProtoDV -e 8 -c 0 -i 52 -a 0 -x {5.1 6.1 -1 ------- null}
- -t 0.0472039772774061 -s 5 -d 6 -p rtProtoDV -e 8 -c 0 -i 52 -a 0 -x {5.1 6.1 -1 ------- null}
h -t 0.0472039772774061 -s 5 -d 6 -p rtProtoDV -e 8 -c 0 -i 52 -a 0 -x {5.1 6.1 -1 ------- null}
r -t 0.0472303302185826 -s 0 -d 2 -p rtProtoDV -e 8 -c 0 -i 33 -a 0 -x {0.2 2.1 -1 ------- null}
r -t 0.0472303302185826 -s 3 -d 2 -p rtProtoDV -e 8 -c 0 -i 35 -a 0 -x {3.1 2.1 -1 ------- null}
+ -t 0.0472303302185826 -s 2 -d 0 -p rtProtoDV -e 8 -c 0 -i 53 -a 0 -x {2.1 0.2 -1 ------- null}
- -t 0.0472303302185826 -s 2 -d 0 -p rtProtoDV -e 8 -c 0 -i 53 -a 0 -x {2.1 0.2 -1 ------- null}
h -t 0.0472303302185826 -s 2 -d 0 -p rtProtoDV -e 8 -c 0 -i 53 -a 0 -x {2.1 0.2 -1 ------- null}
+ -t 0.0472303302185826 -s 2 -d 1 -p rtProtoDV -e 8 -c 0 -i 54 -a 0 -x {2.1 1.2 -1 ------- null}
- -t 0.0472303302185826 -s 2 -d 1 -p rtProtoDV -e 8 -c 0 -i 54 -a 0 -x {2.1 1.2 -1 ------- null}
h -t 0.0472303302185826 -s 2 -d 1 -p rtProtoDV -e 8 -c 0 -i 54 -a 0 -x {2.1 1.2 -1 ------- null}
+ -t 0.0472303302185826 -s 2 -d 3 -p rtProtoDV -e 8 -c 0 -i 55 -a 0 -x {2.1 3.1 -1 ------- null}
- -t 0.0472303302185826 -s 2 -d 3 -p rtProtoDV -e 8 -c 0 -i 55 -a 0 -x {2.1 3.1 -1 ------- null}
h -t 0.0472303302185826 -s 2 -d 3 -p rtProtoDV -e 8 -c 0 -i 55 -a 0 -x {2.1 3.1 -1 ------- null}
r -t 0.0472303302185826 -s 3 -d 4 -p rtProtoDV -e 8 -c 0 -i 36 -a 0 -x {3.1 4.1 -1 ------- null}
r -t 0.0472359772774061 -s 7 -d 4 -p rtProtoDV -e 8 -c 0 -i 38 -a 0 -x {7.1 4.1 -1 ------- null}
r -t 0.0472359772774061 -s 7 -d 6 -p rtProtoDV -e 8 -c 0 -i 39 -a 0 -x {7.1 6.1 -1 ------- null}
+ -t 0.0472359772774061 -s 6 -d 5 -p rtProtoDV -e 8 -c 0 -i 56 -a 0 -x {6.1 5.1 -1 ------- null}
+ -t 0.0472359772774061 -s 6 -d 7 -p rtProtoDV -e 8 -c 0 -i 57 -a 0 -x {6.1 7.1 -1 ------- null}
- -t 0.0472359772774061 -s 6 -d 5 -p rtProtoDV -e 8 -c 0 -i 56 -a 0 -x {6.1 5.1 -1 ------- null}
h -t 0.0472359772774061 -s 6 -d 5 -p rtProtoDV -e 8 -c 0 -i 56 -a 0 -x {6.1 5.1 -1 ------- null}
- -t 0.0472359772774061 -s 6 -d 7 -p rtProtoDV -e 8 -c 0 -i 57 -a 0 -x {6.1 7.1 -1 ------- null}
h -t 0.0472359772774061 -s 6 -d 7 -p rtProtoDV -e 8 -c 0 -i 57 -a 0 -x {6.1 7.1 -1 ------- null}
r -t 0.0502599703055165 -s 1 -d 2 -p rtProtoDV -e 8 -c 0 -i 24 -a 0 -x {1.2 2.1 -1 ------- null}
r -t 0.0502770826049817 -s 0 -d 2 -p rtProtoDV -e 8 -c 0 -i 40 -a 0 -x {0.2 2.1 -1 ------- null}
+ -t 0.0502770826049817 -s 2 -d 0 -p rtProtoDV -e 8 -c 0 -i 58 -a 0 -x {2.1 0.2 -1 ------- null}
- -t 0.0502770826049817 -s 2 -d 0 -p rtProtoDV -e 8 -c 0 -i 58 -a 0 -x {2.1 0.2 -1 ------- null}
h -t 0.0502770826049817 -s 2 -d 0 -p rtProtoDV -e 8 -c 0 -i 58 -a 0 -x {2.1 0.2 -1 ------- null}
+ -t 0.0502770826049817 -s 2 -d 1 -p rtProtoDV -e 8 -c 0 -i 59 -a 0 -x {2.1 1.2 -1 ------- null}
- -t 0.0502770826049817 -s 2 -d 1 -p rtProtoDV -e 8 -c 0 -i 59 -a 0 -x {2.1 1.2 -1 ------- null}
h -t 0.0502770826049817 -s 2 -d 1 -p rtProtoDV -e 8 -c 0 -i 59 -a 0 -x {2.1 1.2 -1 ------- null}
+ -t 0.0502770826049817 -s 2 -d 3 -p rtProtoDV -e 8 -c 0 -i 60 -a 0 -x {2.1 3.1 -1 ------- null}
- -t 0.0502770826049817 -s 2 -d 3 -p rtProtoDV -e 8 -c 0 -i 60 -a 0 -x {2.1 3.1 -1 ------- null}
h -t 0.0502770826049817 -s 2 -d 3 -p rtProtoDV -e 8 -c 0 -i 60 -a 0 -x {2.1 3.1 -1 ------- null}
r -t 0.0502770826049817 -s 4 -d 5 -p rtProtoDV -e 8 -c 0 -i 26 -a 0 -x {4.1 5.1 -1 ------- null}
r -t 0.0503034355461582 -s 3 -d 2 -p rtProtoDV -e 8 -c 0 -i 42 -a 0 -x {3.1 2.1 -1 ------- null}
r -t 0.0503034355461582 -s 3 -d 4 -p rtProtoDV -e 8 -c 0 -i 43 -a 0 -x {3.1 4.1 -1 ------- null}
r -t 0.0503034355461582 -s 5 -d 6 -p rtProtoDV -e 8 -c 0 -i 45 -a 0 -x {5.1 6.1 -1 ------- null}
r -t 0.05409333552271 -s 3 -d 2 -p rtProtoDV -e 8 -c 0 -i 46 -a 0 -x {3.1 2.1 -1 ------- null}
r -t 0.05409333552271 -s 3 -d 4 -p rtProtoDV -e 8 -c 0 -i 47 -a 0 -x {3.1 4.1 -1 ------- null}
r -t 0.0572096243362296 -s 7 -d 0 -p rtProtoDV -e 8 -c 0 -i 30 -a 0 -x {7.1 0.2 -1 ------- null}
r -t 0.0572359772774061 -s 6 -d 5 -p rtProtoDV -e 8 -c 0 -i 49 -a 0 -x {6.1 5.1 -1 ------- null}
r -t 0.0572359772774061 -s 6 -d 7 -p rtProtoDV -e 8 -c 0 -i 50 -a 0 -x {6.1 7.1 -1 ------- null}
r -t 0.0572359772774061 -s 0 -d 7 -p rtProtoDV -e 8 -c 0 -i 34 -a 0 -x {0.2 7.1 -1 ------- null}
r -t 0.0572359772774061 -s 5 -d 6 -p rtProtoDV -e 8 -c 0 -i 52 -a 0 -x {5.1 6.1 -1 ------- null}
r -t 0.0572472713950532 -s 7 -d 0 -p rtProtoDV -e 8 -c 0 -i 37 -a 0 -x {7.1 0.2 -1 ------- null}
+ -t 0.0572472713950532 -s 0 -d 2 -p rtProtoDV -e 8 -c 0 -i 61 -a 0 -x {0.2 2.1 -1 ------- null}
- -t 0.0572472713950532 -s 0 -d 2 -p rtProtoDV -e 8 -c 0 -i 61 -a 0 -x {0.2 2.1 -1 ------- null}
h -t 0.0572472713950532 -s 0 -d 2 -p rtProtoDV -e 8 -c 0 -i 61 -a 0 -x {0.2 2.1 -1 ------- null}
+ -t 0.0572472713950532 -s 0 -d 7 -p rtProtoDV -e 8 -c 0 -i 62 -a 0 -x {0.2 7.1 -1 ------- null}
- -t 0.0572472713950532 -s 0 -d 7 -p rtProtoDV -e 8 -c 0 -i 62 -a 0 -x {0.2 7.1 -1 ------- null}
h -t 0.0572472713950532 -s 0 -d 7 -p rtProtoDV -e 8 -c 0 -i 62 -a 0 -x {0.2 7.1 -1 ------- null}
r -t 0.0572623302185826 -s 2 -d 0 -p rtProtoDV -e 8 -c 0 -i 53 -a 0 -x {2.1 0.2 -1 ------- null}
r -t 0.0572623302185826 -s 2 -d 3 -p rtProtoDV -e 8 -c 0 -i 55 -a 0 -x {2.1 3.1 -1 ------- null}
r -t 0.0572679772774061 -s 6 -d 5 -p rtProtoDV -e 8 -c 0 -i 56 -a 0 -x {6.1 5.1 -1 ------- null}
r -t 0.0572679772774061 -s 6 -d 7 -p rtProtoDV -e 8 -c 0 -i 57 -a 0 -x {6.1 7.1 -1 ------- null}
r -t 0.0602827296638052 -s 0 -d 7 -p rtProtoDV -e 8 -c 0 -i 41 -a 0 -x {0.2 7.1 -1 ------- null}
r -t 0.0603090826049817 -s 2 -d 0 -p rtProtoDV -e 8 -c 0 -i 58 -a 0 -x {2.1 0.2 -1 ------- null}
r -t 0.0603090826049817 -s 2 -d 3 -p rtProtoDV -e 8 -c 0 -i 60 -a 0 -x {2.1 3.1 -1 ------- null}
r -t 0.0603090826049817 -s 5 -d 4 -p rtProtoDV -e 8 -c 0 -i 44 -a 0 -x {5.1 4.1 -1 ------- null}
r -t 0.0672245120367644 -s 1 -d 2 -p rtProtoDV -e 8 -c 0 -i 48 -a 0 -x {1.2 2.1 -1 ------- null}
r -t 0.0672416243362296 -s 5 -d 4 -p rtProtoDV -e 8 -c 0 -i 51 -a 0 -x {5.1 4.1 -1 ------- null}
r -t 0.0672594211276735 -s 2 -d 1 -p rtProtoDV -e 8 -c 0 -i 54 -a 0 -x {2.1 1.2 -1 ------- null}
+ -t 0.0672594211276735 -s 1 -d 2 -p rtProtoDV -e 8 -c 0 -i 63 -a 0 -x {1.2 2.1 -1 ------- null}
- -t 0.0672594211276735 -s 1 -d 2 -p rtProtoDV -e 8 -c 0 -i 63 -a 0 -x {1.2 2.1 -1 ------- null}
h -t 0.0672594211276735 -s 1 -d 2 -p rtProtoDV -e 8 -c 0 -i 63 -a 0 -x {1.2 2.1 -1 ------- null}
r -t 0.0672792713950532 -s 0 -d 2 -p rtProtoDV -e 8 -c 0 -i 61 -a 0 -x {0.2 2.1 -1 ------- null}
r -t 0.0703061735140726 -s 2 -d 1 -p rtProtoDV -e 8 -c 0 -i 59 -a 0 -x {2.1 1.2 -1 ------- null}
+ -t 0.0703061735140726 -s 1 -d 2 -p rtProtoDV -e 8 -c 0 -i 64 -a 0 -x {1.2 2.1 -1 ------- null}
- -t 0.0703061735140726 -s 1 -d 2 -p rtProtoDV -e 8 -c 0 -i 64 -a 0 -x {1.2 2.1 -1 ------- null}
h -t 0.0703061735140726 -s 1 -d 2 -p rtProtoDV -e 8 -c 0 -i 64 -a 0 -x {1.2 2.1 -1 ------- null}
r -t 0.0772849184538767 -s 0 -d 7 -p rtProtoDV -e 8 -c 0 -i 62 -a 0 -x {0.2 7.1 -1 ------- null}
r -t 0.0872885120367644 -s 1 -d 2 -p rtProtoDV -e 8 -c 0 -i 63 -a 0 -x {1.2 2.1 -1 ------- null}
r -t 0.0903352644231635 -s 1 -d 2 -p rtProtoDV -e 8 -c 0 -i 64 -a 0 -x {1.2 2.1 -1 ------- null}
+ -t 0.156480885882155 -s 6 -d 5 -p rtProtoDV -e 8 -c 0 -i 65 -a 0 -x {6.1 5.1 -1 ------- null}
- -t 0.156480885882155 -s 6 -d 5 -p rtProtoDV -e 8 -c 0 -i 65 -a 0 -x {6.1 5.1 -1 ------- null}
h -t 0.156480885882155 -s 6 -d 5 -p rtProtoDV -e 8 -c 0 -i 65 -a 0 -x {6.1 5.1 -1 ------- null}
+ -t 0.156480885882155 -s 6 -d 7 -p rtProtoDV -e 8 -c 0 -i 66 -a 0 -x {6.1 7.1 -1 ------- null}
- -t 0.156480885882155 -s 6 -d 7 -p rtProtoDV -e 8 -c 0 -i 66 -a 0 -x {6.1 7.1 -1 ------- null}
h -t 0.156480885882155 -s 6 -d 7 -p rtProtoDV -e 8 -c 0 -i 66 -a 0 -x {6.1 7.1 -1 ------- null}
r -t 0.166512885882155 -s 6 -d 5 -p rtProtoDV -e 8 -c 0 -i 65 -a 0 -x {6.1 5.1 -1 ------- null}
r -t 0.166512885882155 -s 6 -d 7 -p rtProtoDV -e 8 -c 0 -i 66 -a 0 -x {6.1 7.1 -1 ------- null}
+ -t 0.22058669092161 -s 4 -d 3 -p rtProtoDV -e 8 -c 0 -i 67 -a 0 -x {4.1 3.1 -1 ------- null}
- -t 0.22058669092161 -s 4 -d 3 -p rtProtoDV -e 8 -c 0 -i 67 -a 0 -x {4.1 3.1 -1 ------- null}
h -t 0.22058669092161 -s 4 -d 3 -p rtProtoDV -e 8 -c 0 -i 67 -a 0 -x {4.1 3.1 -1 ------- null}
+ -t 0.22058669092161 -s 4 -d 5 -p rtProtoDV -e 8 -c 0 -i 68 -a 0 -x {4.1 5.1 -1 ------- null}
- -t 0.22058669092161 -s 4 -d 5 -p rtProtoDV -e 8 -c 0 -i 68 -a 0 -x {4.1 5.1 -1 ------- null}
h -t 0.22058669092161 -s 4 -d 5 -p rtProtoDV -e 8 -c 0 -i 68 -a 0 -x {4.1 5.1 -1 ------- null}
+ -t 0.22058669092161 -s 4 -d 7 -p rtProtoDV -e 8 -c 0 -i 69 -a 0 -x {4.1 7.1 -1 ------- null}
- -t 0.22058669092161 -s 4 -d 7 -p rtProtoDV -e 8 -c 0 -i 69 -a 0 -x {4.1 7.1 -1 ------- null}
h -t 0.22058669092161 -s 4 -d 7 -p rtProtoDV -e 8 -c 0 -i 69 -a 0 -x {4.1 7.1 -1 ------- null}
r -t 0.23061869092161 -s 4 -d 3 -p rtProtoDV -e 8 -c 0 -i 67 -a 0 -x {4.1 3.1 -1 ------- null}
r -t 0.23061869092161 -s 4 -d 7 -p rtProtoDV -e 8 -c 0 -i 69 -a 0 -x {4.1 7.1 -1 ------- null}
r -t 0.240624337980433 -s 4 -d 5 -p rtProtoDV -e 8 -c 0 -i 68 -a 0 -x {4.1 5.1 -1 ------- null}
+ -t 0.277940357931862 -s 1 -d 2 -p rtProtoDV -e 8 -c 0 -i 70 -a 0 -x {1.2 2.1 -1 ------- null}
- -t 0.277940357931862 -s 1 -d 2 -p rtProtoDV -e 8 -c 0 -i 70 -a 0 -x {1.2 2.1 -1 ------- null}
h -t 0.277940357931862 -s 1 -d 2 -p rtProtoDV -e 8 -c 0 -i 70 -a 0 -x {1.2 2.1 -1 ------- null}
r -t 0.297969448840953 -s 1 -d 2 -p rtProtoDV -e 8 -c 0 -i 70 -a 0 -x {1.2 2.1 -1 ------- null}
+ -t 0.399577726796073 -s 5 -d 4 -p rtProtoDV -e 8 -c 0 -i 71 -a 0 -x {5.1 4.1 -1 ------- null}
- -t 0.399577726796073 -s 5 -d 4 -p rtProtoDV -e 8 -c 0 -i 71 -a 0 -x {5.1 4.1 -1 ------- null}
h -t 0.399577726796073 -s 5 -d 4 -p rtProtoDV -e 8 -c 0 -i 71 -a 0 -x {5.1 4.1 -1 ------- null}
+ -t 0.399577726796073 -s 5 -d 6 -p rtProtoDV -e 8 -c 0 -i 72 -a 0 -x {5.1 6.1 -1 ------- null}
- -t 0.399577726796073 -s 5 -d 6 -p rtProtoDV -e 8 -c 0 -i 72 -a 0 -x {5.1 6.1 -1 ------- null}
h -t 0.399577726796073 -s 5 -d 6 -p rtProtoDV -e 8 -c 0 -i 72 -a 0 -x {5.1 6.1 -1 ------- null}
+ -t 0.408238025805092 -s 7 -d 0 -p rtProtoDV -e 8 -c 0 -i 73 -a 0 -x {7.1 0.2 -1 ------- null}
- -t 0.408238025805092 -s 7 -d 0 -p rtProtoDV -e 8 -c 0 -i 73 -a 0 -x {7.1 0.2 -1 ------- null}
h -t 0.408238025805092 -s 7 -d 0 -p rtProtoDV -e 8 -c 0 -i 73 -a 0 -x {7.1 0.2 -1 ------- null}
+ -t 0.408238025805092 -s 7 -d 4 -p rtProtoDV -e 8 -c 0 -i 74 -a 0 -x {7.1 4.1 -1 ------- null}
- -t 0.408238025805092 -s 7 -d 4 -p rtProtoDV -e 8 -c 0 -i 74 -a 0 -x {7.1 4.1 -1 ------- null}
h -t 0.408238025805092 -s 7 -d 4 -p rtProtoDV -e 8 -c 0 -i 74 -a 0 -x {7.1 4.1 -1 ------- null}
+ -t 0.408238025805092 -s 7 -d 6 -p rtProtoDV -e 8 -c 0 -i 75 -a 0 -x {7.1 6.1 -1 ------- null}
- -t 0.408238025805092 -s 7 -d 6 -p rtProtoDV -e 8 -c 0 -i 75 -a 0 -x {7.1 6.1 -1 ------- null}
h -t 0.408238025805092 -s 7 -d 6 -p rtProtoDV -e 8 -c 0 -i 75 -a 0 -x {7.1 6.1 -1 ------- null}